/*--------------------------------*- C++ -*----------------------------------*\
  =========                 |
  \\      /  F ield         | OpenFOAM: The Open Source CFD Toolbox
   \\    /   O peration     | Website:  https://openfoam.org
    \\  /    A nd           | Version:  7
     \\/     M anipulation  |
\*---------------------------------------------------------------------------*/
FoamFile
{
    version     2.0;
    format      ascii;
    class       volScalarField;
    object      p;
}
// * * * * * * * * * * * * * * * * * * * * * * * * * * * * * * * * * * * * * //

#include "../input.txt"

dimensions      [0 2 -2 0 0 0 0];

internalField   uniform $pin;

boundaryField
{

    inlet
    {   
        type            fixedFluxPressure;
    }

    outlet
    {
            type            fixedMeanOutletInlet;
            meanValue       uniform $pout;
            value           uniform $pout;
    }


    membrane
    {
        type            fixedFluxPressure;
    }


    front
    {
        type            wedge;
    }

    back
    {
        type            wedge;
    }
    axis
    {
        type            empty;
    }
}

// ************************************************************************* //
